<?xml version="1.0" encoding="UTF-8"?>

<!-- generated on 08/05/19 00:59:57 by Eclipse SUMO GUI Version 1.2.0
<configuration xmlns:xsi="http://www.w3.org/2001/XMLSchema-instance" xsi:noNamespaceSchemaLocation="http://sumo.dlr.de/xsd/sumoConfiguration.xsd">

    <input>
        <net-file value="data/sim.net.xml"/>
        <route-files value="data/sim.rou.xml"/>
        <additional-files value="data/sim.det.xml,data/sim.add.xml"/>
    </input>

    <output>
        <summary-output value="data/sim.sum"/>
        <tripinfo-output value="tripinfo.xml"/>
    </output>

    <time>
        <begin value="0"/>
    </time>

    <report>
        <verbose value="true"/>
        <no-step-log value="false"/>
    </report>

    <traci_server>
        <remote-port value="60803"/>
    </traci_server>

</configuration>
